units  metal
dimension  3
boundary  p p p
atom_style  full
read_data  initial.data
  triclinic box = (0 0 0) to (8.50364 8.50364 8.50364) with tilt (5.20698e-16 5.20698e-16 5.20698e-16)
  1 by 1 by 1 MPI processor grid
  reading atoms ...
  64 atoms
  0 = max # of 1-2 neighbors
  0 = max # of 1-3 neighbors
  0 = max # of 1-4 neighbors
  1 = max # of special neighbors
kspace_style  pppm 0.000010
pair_style  buck/coul/long 10.000000
pair_coeff 1 1 1309362.2766468062 0.104 0.0
pair_coeff 1 2 9892.357 0.20199 0.0
pair_coeff 2 2 2145.7345 0.3 30.2222
set type 1 charge 1.400000
  32 settings made for charge
set type 2 charge -1.400000
  32 settings made for charge
dump  1 all custom 1 mol.lammpstrj id type x y z fx fy fz
dump_modify  1 sort id
thermo_style  custom step etotal pxx pyy pzz pxy pxz pyz
run  0
WARNING: No fixes defined, atoms won't move (../verlet.cpp:55)
PPPM initialization ...
WARNING: Using 12-bit tables for long-range coulomb (../kspace.cpp:316)
  G vector (1/distance) = 0.338215
  grid = 12 12 12
  stencil order = 5
  estimated absolute RMS force accuracy = 8.66947e-05
  estimated relative force accuracy = 6.02061e-06
  using double precision FFTs
  3d grid and FFT values/proc = 6859 1728
Neighbor list info ...
  1 neighbor list requests
  update every 1 steps, delay 10 steps, check yes
  max neighbors/atom: 2000, page size: 100000
  master list distance cutoff = 12
  ghost atom cutoff = 12
  binsize = 6 -> bins = 2 2 2
Memory usage per processor = 7.09512 Mbytes
Step TotEng Pxx Pyy Pzz Pxy Pxz Pyz 
       0   -682.25508   -65294.313   -65294.313   -65294.313 -4.1537034e-11 1.7075669e-10 2.6221676e-10 
Loop time of 2.35668e-06 on 1 procs for 0 steps with 64 atoms

0.0% CPU use with 1 MPI tasks x no OpenMP threads

MPI task timing breakdown:
Section |  min time  |  avg time  |  max time  |%varavg| %total
---------------------------------------------------------------
Pair    | 0          | 0          | 0          |   0.0 |  0.00
Bond    | 0          | 0          | 0          |   0.0 |  0.00
Kspace  | 0          | 0          | 0          |   0.0 |  0.00
Neigh   | 0          | 0          | 0          |   0.0 |  0.00
Comm    | 0          | 0          | 0          |   0.0 |  0.00
Output  | 0          | 0          | 0          |   0.0 |  0.00
Modify  | 0          | 0          | 0          |   0.0 |  0.00
Other   |            | 2.357e-06  |            |       |100.00

Nlocal:    64 ave 64 max 64 min
Histogram: 1 0 0 0 0 0 0 0 0 0
Nghost:    3311 ave 3311 max 3311 min
Histogram: 1 0 0 0 0 0 0 0 0 0
Neighs:    23616 ave 23616 max 23616 min
Histogram: 1 0 0 0 0 0 0 0 0 0

Total # of neighbors = 23616
Ave neighs/atom = 369
Ave special neighs/atom = 0
Neighbor list builds = 0
Dangerous builds = 0
Total wall time: 0:00:00
